################################################################################
# Symmetry function scaling data.
################################################################################
# Col  Name     Description
################################################################################
# 1    e_index  Element index.
# 2    sf_index Symmetry function index.
# 3    sf_min   Symmetry function minimum.
# 4    sf_max   Symmetry function maximum.
# 5    sf_mean  Symmetry function mean.
# 6    sf_sigma Symmetry function sigma.
#########################################################################################################################
#        1          2                        3                        4                        5                        6
#  e_index   sf_index                   sf_min                   sf_max                  sf_mean                 sf_sigma
#########################################################################################################################
         1          1   9.9929839582216985E+01   6.7999300145246934E+02   3.9180126778337342E+02   8.7749764137943671E+01
         1          2   8.9940247959400594E+01   5.7208923571105447E+02   3.2316116358288082E+02   7.3651457347936656E+01
         1          3   7.6589507701621670E+01   4.3557620590544980E+02   2.3817838507800701E+02   5.5813547024487313E+01
         1          4   6.0470814457059433E+01   2.9116222631490939E+02   1.5143405961454908E+02   3.6912242594088369E+01
         1          5   4.0310055937160591E+01   1.6842682981597710E+02   8.2066490591536947E+01   2.0706158517024654E+01
         1          6   3.0691541075614555E+01   4.4448298769765614E+02   2.6098789207799018E+02   5.2891369697775332E+01
         1          7   1.7963822436864849E+01   8.2492152306947617E+01   3.8393992647357017E+01   9.0852551552795067E+00
         1          8   3.7444155644931243E+01   5.7534480385439065E+02   3.2660283258675287E+02   6.8044567840897543E+01
         1          9   6.2864759330334472E+00   3.0295077427097286E+01   1.4838492016189237E+01   2.2744716104459419E+00
         1         10   1.4425990585219945E+00   6.6726557096354746E+00   4.1162605397617069E+00   2.2056789128644991E-01
         1         11   3.7515897441948447E+01   4.1406249572577894E+02   2.0476764207369183E+02   5.8438456974006108E+01
         1         12   5.1482612563696293E+01   3.0960830357730310E+02   1.1502327051773419E+02   5.2487612857601754E+01
         1         13   1.1691574648718657E+01   1.4662419396172007E+02   6.2461236844976845E+01   1.0136335782709882E+01
         1         14   1.2252813694323037E+00   2.2308123136688426E+01   1.0419374058251924E+01   1.2340161496396245E+00
         1         15   7.7482805783085780E+02   3.5488138644581253E+04   1.0199106893057806E+04   4.9374869585909555E+03
         1         16   2.1219379518409646E+03   8.2271476433195727E+04   3.3394077913298694E+04   1.2117797699952058E+04
         1         17   1.1877630581265991E+02   6.7693907098248046E+03   1.3233685962675972E+03   5.7145763632929948E+02
         1         18   1.6084414357672704E+03   4.2012777780504497E+04   1.9038428407692147E+04   5.9995756597226100E+03
         1         19   6.2319923434096525E-01   2.4759774455659867E+03   3.8360455733806964E+02   1.7598791794977336E+02
         1         20   6.3637350652935379E+02   1.0476509064170607E+04   5.0592389184499962E+03   1.4200201839104304E+03
         1         21   5.8689675742448651E+02   2.3571952822690891E+04   6.4705763983918523E+03   3.2639639807496883E+03
         1         22   1.4009462357322698E+03   5.2140464300893334E+04   2.0283402242417811E+04   7.6280524961779729E+03
         1         23   6.3791235882108332E+01   4.4585415569342322E+03   8.9728101335614292E+02   3.5726254610799509E+02
         1         24   1.0536355291530094E+03   2.5765021150315795E+04   1.1334955022045073E+04   3.6257550323807236E+03
         1         25   2.7078388686982180E-01   1.7054763230931494E+03   2.9549960282691785E+02   1.4774863059063523E+02
         1         26   4.0925119202645465E+02   6.1454451394044190E+03   2.8796650870433473E+03   8.0578119765608290E+02
         1         27   3.4258274021324968E+02   1.2423880573997874E+04   3.1681950036179473E+03   1.7160591752185885E+03
         1         28   7.0988578460579799E+02   2.5075518344744411E+04   9.0508016869881849E+03   3.6358246825287379E+03
         1         29   2.3624554394295796E+01   2.3019950598737869E+03   4.9768579779547190E+02   1.7228572338450348E+02
         1         30   5.2481218085000353E+02   1.1556375433010002E+04   4.8480652833552558E+03   1.5880911963540366E+03
         1         31   6.6760568471033066E-02   9.0373374676818071E+02   1.9408723945190656E+02   1.0657799716147976E+02
         1         32   2.0115455349955795E+02   2.5159013055056676E+03   1.1277873374853430E+03   3.0932900687484516E+02
         1         33   1.3835037612019070E+02   4.7278255585160732E+03   1.0795479491288784E+03   6.5285136176405092E+02
         1         34   2.3625436517885126E+02   8.1471995180495169E+03   2.5552973419690006E+03   1.1642679518942459E+03
         1         35   5.2287491758550821E+00   8.4264675256221733E+02   2.1086932812656977E+02   5.9491188359085790E+01
         1         36   1.7052322323770460E+02   3.2599137244966423E+03   1.2530879557439696E+03   4.2983325152756561E+02
         1         37   7.1793225986949193E-03   3.0945511618430299E+02   9.8120096500782864E+01   5.8010593592014814E+01
         1         38   6.2023212359394847E+01   5.7837882054499823E+02   2.4495738456072203E+02   6.2755653639957082E+01
         1         39   3.2486443345895189E+01   1.1055902205055672E+03   2.1777295881297380E+02   1.4926994678976888E+02
         1         40   2.5036847841313534E+01   1.5352421357002384E+03   3.7026386589342860E+02   2.1472527502629981E+02
         1         41   5.5762895288900116E-01   1.8851813800364266E+02   5.8351795165882308E+01   1.2606434254174232E+01
         1         42   2.0789779249461276E+01   4.8588232641936622E+02   1.5297155165128888E+02   5.9790754604362341E+01
         1         43   2.8006969457164107E-04   6.7917028157723109E+01   3.1311927790713916E+01   1.9361841341561714E+01
         1         44   6.7329306830266020E+00   5.7804027542204850E+01   2.1439983977942603E+01   4.8660000803763301E+00
         1         45   1.0896190214205370E+00   1.1593224210533958E+02   1.9032402843982567E+01   1.3649480558697745E+01
         1         46   4.0603829302663835E-01   1.3411063157920685E+02   2.0078158338146462E+01   1.7007559404206013E+01
         1         47   1.6750103274028684E-02   1.9322224274624041E+01   7.2934304651147288E+00   1.0741724678873015E+00
         1         48   3.2109976216207653E-01   3.2905657720623367E+01   6.1898112378093941E+00   3.5409336231452140E+00
         1         49   2.2898966468436154E-06   1.1979725573073384E+01   4.3705394586076185E+00   2.8026157501912614E+00
         1         50   1.3252471201870747E-01   4.4364918492810670E+00   5.0027593089916111E-01   1.9058629565254248E-01
         1         51   3.3960028295108233E-03   3.4288170738170112E+00   4.0543710346090389E-01   2.4673519976312830E-01
         1         52   6.0429873320149981E-04   4.0912545253660770E+00   2.4781665414795251E-01   3.0183069981505517E-01
         1         53   5.2392473562690529E-05   7.7613155363681796E-01   2.1505268110478823E-01   3.3978324955687741E-02
         1         54   2.4127872296345477E-04   1.5390917626752210E+00   5.4156055485376380E-02   6.1151038959254111E-02
         1         55   1.0915697546814811E-09   5.8277427102961510E-01   1.4258849424670053E-01   9.5900222086084994E-02
         1         56   1.2464506792397940E-04   3.3758049892905684E-01   2.6988443942374679E-03   5.3133796196044641E-03
         1         57   1.6821669465736250E-07   3.9133888327338141E-02   7.5335598935630742E-04   6.7036218959821297E-04
         1         58   8.3087993912943367E-09   1.0278483944249274E-01   2.7679177732523925E-04   9.3328765994840201E-04
         1         59   2.5886947268129486E-09   6.1143051004806668E-03   5.0798186097545512E-04   1.7626958973689113E-04
         1         60   9.3382722297742203E-10   6.4948273905906351E-02   5.6349765779079144E-05   3.2147829772040062E-04
         1         61   1.3422457462768965E-14   2.9936898340307346E-03   3.6916036973579184E-04   2.6687652881369150E-04
         1         62   4.4447485203775133E-10   1.1029791045138229E-02   4.2890230710321943E-06   5.3269119108673073E-05
         2          1   5.3664994930801890E-01   5.7748945517276081E+02   2.2252842438288260E+02   6.8012652311075740E+01
         2          2   3.2166695085887598E-01   4.6912458736407871E+02   1.7651598795085178E+02   5.5409221702091571E+01
         2          3   1.3282131152925822E-01   3.3345470422981771E+02   1.2107468833824150E+02   3.9613110073415015E+01
         2          4   2.9084326817473458E-02   2.1286496351385969E+02   6.7275552558407128E+01   2.3248381452537416E+01
         2          5   2.1835416870704463E-03   1.1373318408624397E+02   2.8453802034993711E+01   1.0169676999948372E+01
         2          6   9.2249082871237309E-01   3.9646575849453126E+02   1.8439630392174450E+02   4.7430909701032071E+01
         2          7   2.6653474232389791E-05   4.7094985673137899E+01   9.2470282176259762E+00   2.7894828482615601E+00
         2          8   1.4552482178414120E-01   5.5040742955206110E+02   2.1558652419874880E+02   6.6638414260957163E+01
         2          9   1.4486656616497354E-08   1.3527963423815370E+01   3.1949313258503711E+00   3.7357201311754051E-01
         2         10   3.4803162015224371E-14   3.0493948531062056E+00   1.4874463260357116E+00   6.3946116894676455E-02
         2         11   4.3595443882762436E-04   4.3559936199865518E+02   1.2850476534824855E+02   5.3767934104988633E+01
         2         12   3.6808706487492561E-10   2.1183691211086551E+02   2.3335679519270887E+01   1.3025106879909426E+01
         2         13   2.3487227361179821E-23   5.0365214934973949E+01   3.5499231723105376E+00   1.0174143820571471E+00
         2         14   2.3230316568591912E-50   1.2299614080538678E+01   5.7754438029378736E+00   9.8363978192882368E-02
         2         15   4.4443717924639798E-03   1.8670825098319052E+04   2.4310564038393222E+03   1.6417441411518287E+03
         2         16   4.8980630754877588E-02   5.4966815949033735E+04   1.2279365891253117E+04   6.4065696856983141E+03
         2         17   1.0029145219338707E-05   2.1325194738330752E+03   8.8787834712390364E+01   1.0458636861089390E+02
         2         18   3.8495242215875698E-02   2.9472893381180496E+04   7.8394649620615055E+03   3.6964678192348783E+03
         2         19   1.5707245302651725E-14   2.8287720275487493E+02   2.3056360994274820E+00   7.3194288080587482E+00
         2         20   1.8920195641597384E-02   7.4768366278966168E+03   2.3083949103185209E+03   7.8220367857018528E+02
         2         21   1.2493431539835067E-03   1.1900995601109753E+04   1.3621986386765709E+03   9.6338515452481136E+02
         2         22   1.4402873560762553E-02   3.4224768933709929E+04   6.9583028798175674E+03   3.7808358020083870E+03
         2         23   2.7157145168243204E-06   1.2824207585640493E+03   4.6571096232376476E+01   5.7189995262311996E+01
         2         24   1.1443555262481583E-02   1.7878474544543580E+04   4.4435617941053570E+03   2.1612441322237391E+03
         2         25   3.0185672330579390E-15   1.6317546617737267E+02   1.1654732155654879E+00   4.0430678937809219E+00
         2         26   5.8451813055258022E-03   4.2755551909819651E+03   1.3092905400365350E+03   4.1264912156367467E+02
         2         27   1.3834152071861940E-04   5.8109465477358526E+03   5.3048869049222480E+02   4.0697194955624707E+02
         2         28   1.7313959459455664E-03   1.5979698761430005E+04   2.7682295271859484E+03   1.6013909058171935E+03
         2         29   2.8369448283986279E-07   5.5793452361518928E+02   1.6291468050134185E+01   2.1380036603762889E+01
         2         30   1.4015393684843082E-03   7.9468402243184428E+03   1.7752891298787390E+03   8.9908950888854815E+02
         2         31   1.8330889170104980E-16   6.8427594885493932E+01   3.7970307651054552E-01   1.5328110650020825E+00
         2         32   7.6330292352969845E-04   1.7056980970298212E+03   5.4243486497394667E+02   1.3869740606842092E+02
         2         33   3.0807691302652211E-06   1.9199410818541458E+03   1.1953411644618322E+02   1.0556798850609883E+02
         2         34   4.5122182610135712E-05   4.9217092919855013E+03   6.6790104618466648E+02   4.1392340072148954E+02
         2         35   5.7539041840347639E-09   1.5177540622721804E+02   3.2099349368346046E+00   4.6848345358644519E+00
         2         36   3.7693155863351651E-05   2.2545061456811968E+03   4.4108825058446865E+02   2.2612340309137247E+02
         2         37   1.8420496257339135E-18   1.7250515333361196E+01   6.7103718659285605E-02   3.3473642246890989E-01
         2         38   2.2734331907676456E-05   4.0527171354734463E+02   1.5989606301089344E+02   2.2268941671744141E+01
         2         39   4.3857580939243875E-09   3.5859008971761483E+02   1.2368655587844522E+01   1.3693702929147912E+01
         2         40   8.8377333238413942E-08   8.4656461443316960E+02   9.1137810702626865E+01   5.3777898088991364E+01
         2         41   6.8728834349837897E-12   2.3193458332608042E+01   3.0676920971132871E-01   5.4469125562032283E-01
         2         42   7.7570603118141710E-08   3.5119421993275438E+02   6.7203112923227167E+01   2.8745839382540506E+01
         2         43   1.3134862019800697E-21   2.0766147157348902E+00   5.7862886185200014E-03   3.5499709617395743E-02
         2         44   5.4058102791987048E-08   6.4927172317060112E+01   3.5302377775888559E+01   4.7165273511390975E+00
         2         45   5.7779149269681898E-14   2.9799072828974996E+01   5.1738356898497517E-01   8.0558710913274645E-01
         2         46   2.1794454808515598E-12   6.7086529674031809E+01   7.3345815369572298E+00   3.0910398003691220E+00
         2         47   5.8881471317053388E-17   1.8096018393798445E+00   1.1791287700336363E-02   3.5628830564390875E-02
         2         48   2.0301425557371700E-12   2.8167381094076379E+01   6.2502737744383019E+00   1.6323550713729806E+00
         2         49   9.2955942312557790E-27   2.5773192890787505E-01   1.8735972179067032E-04   1.8158969407749011E-03
         2         50   1.6471657921334766E-12   9.2652721152122179E+00   4.3324128156131465E+00   9.9498296319525081E-01
         2         51   3.6415286368276705E-22   1.1927697208676851E+00   9.2511334143469733E-03   2.7354208946360439E-02
         2         52   3.0624350808015750E-20   2.8805816615704858E+00   2.0020386236471557E-01   8.4729036375032346E-02
         2         53   9.9822043393651461E-26   1.7791597289217889E-01   1.5874686192486311E-04   1.5258340902225317E-03
         2         54   2.9599126930600699E-20   1.3738036399802391E+00   1.7916749509030738E-01   4.3794982231882357E-02
         2         55   1.1930000439464442E-35   8.5290781989899710E-03   1.3749846464285008E-06   4.2990226894416592E-05
         2         56   2.6193905866772440E-20   5.1887687363549473E-01   1.3481784172581804E-01   4.3186093406077791E-02
         2         57   7.2782936617996318E-36   4.9188589083573812E-02   2.8712601456160130E-05   3.1893441998864986E-04
         2         58   8.3745865587277289E-34   8.2255720904080343E-02   4.9693438300784656E-04   7.7743402942159041E-04
         2         59   8.9105559558110986E-41   8.6334755198608643E-03   8.1844996588357485E-07   3.2316675026484565E-05
         2         60   8.1605568949942120E-34   5.4959295570657582E-02   4.3915849294946520E-04   3.6747615409308843E-04
         2         61   3.7895832641773106E-51   1.6424456696857535E-04   3.2003386818186832E-09   5.0105740693826351E-07
         2         62   7.3632332189321033E-34   1.3222904672502487E-02   3.3712512068534179E-04   1.5745433679351998E-04
         3          1   1.0695101569402657E+02   9.1293751187325063E+02   7.3139429876542692E+02   1.2865597345025233E+02
         3          2   8.9142804048348424E+01   7.5017611598383132E+02   6.0450861965464753E+02   1.0603506732910505E+02
         3          3   6.7089322276948394E+01   5.4699143074103449E+02   4.4456519299235327E+02   7.7447830508687446E+01
         3          4   4.3897952949179199E+01   3.3623157779526440E+02   2.7540209321170562E+02   4.7285631476130689E+01
         3          5   2.3515573718174217E+01   1.6322618402466054E+02   1.3209873492938587E+02   2.2115087458380611E+01
         3          6   6.1676346099981231E+01   5.9821126079603550E+02   4.5269347183383798E+02   8.2734667606797345E+01
         3          7   9.3173126729777387E+00   5.4058871904190681E+01   4.1182737013398132E+01   6.6140059370843263E+00
         3          8   7.0508755387173622E+01   7.2163966878064798E+02   5.7302591390700059E+02   1.0732609369840394E+02
         3          9   1.8288844340922736E+00   9.1449677424276619E+00   5.8903289983268721E+00   8.4972360670515323E-01
         3         10   7.2909330910101558E-02   8.4399091198805654E-01   2.2153048609336692E-01   4.5904213085526863E-02
         3         11   8.1019531628388208E+01   7.0462808171408733E+02   5.8726664082123227E+02   1.0175621223694215E+02
         3         12   3.7683014564126516E+01   3.0590372289659814E+02   2.2374459414076392E+02   3.6995080067583018E+01
         3         13   1.3771167884953632E+00   2.6223636940237775E+01   3.8665941912403468E+00   1.3070158407678993E+00
         3         14   1.0348283446294425E-05   1.4103113965653213E+00   3.1852449774004102E-02   8.3350387649493957E-02
         3         15   6.4562063221649112E+02   4.3929601291039704E+04   3.0668438121633568E+04   9.2780226390630869E+03
         3         16   2.4774771334278112E+03   1.1999009824434659E+05   8.4477444841641904E+04   2.2447357500113078E+04
         3         17   1.3039771141735707E+02   6.3374679118529266E+03   4.0148791209145361E+03   1.4029719032312571E+03
         3         18   1.6760327192559839E+03   6.2704440090304422E+04   4.3781257698457848E+04   1.0982737612069828E+04
         3         19   3.3796641073277428E-02   1.0548026648527839E+03   5.8684711561162692E+02   2.1660408246038713E+02
         3         20   7.6101785597014850E+02   1.3852496580416062E+04   9.3525801355542208E+03   1.9679161216016594E+03
         3         21   4.0099257067305439E+02   2.6348127313317957E+04   1.8446189346831139E+04   5.5095530362066684E+03
         3         22   1.4576926795779559E+03   7.2436492728214376E+04   5.1254078336460720E+04   1.3667361956692037E+04
         3         23   6.7673368944907637E+01   3.5460155390264204E+03   2.1974390467829048E+03   7.5854587005301551E+02
         3         24   9.6973203402687818E+02   3.7186283632370418E+04   2.6071159967214699E+04   6.6074722830902283E+03
         3         25   1.5713325162845269E-02   5.3526681684686309E+02   2.8993824782532300E+02   1.0517757388640760E+02
         3         26   4.3212307264740178E+02   7.5397639023820502E+03   5.0829971179696440E+03   1.0796248770845341E+03
         3         27   1.8647239761101628E+02   1.1482709572679238E+04   8.0124519901431368E+03   2.3400674734315139E+03
         3         28   6.4004490098952988E+02   3.1841966926284287E+04   2.2593192694123471E+04   6.0462270287606452E+03
         3         29   2.3822283395950727E+01   1.3208455452778887E+03   7.9005073498619663E+02   2.6617748050725140E+02
         3         30   4.1685473356593218E+02   1.5790695999850379E+04   1.1121083618472738E+04   2.8579189383956823E+03
         3         31   4.2283484309466844E-03   1.6657894035055588E+02   8.5437078556741469E+01   2.9864481034888087E+01
         3         32   1.8051357731632541E+02   2.7021154186132053E+03   1.8196773184754420E+03   3.9138374837468035E+02
         3         33   5.5141982548043273E+01   3.1693956078508149E+03   2.0988036682574111E+03   5.9183714770022868E+02
         3         34   1.9616106240404400E+02   8.5744651254445598E+03   6.0460727298112806E+03   1.6166009844546547E+03
         3         35   5.1020186754515047E+00   2.5388899770912681E+02   1.4410330384928193E+02   4.6054496982439446E+01
         3         36   1.2761605507418682E+02   4.0328876979460319E+03   2.8328982146561757E+03   7.3636796767659848E+02
         3         37   4.5384806925413468E-04   3.1379916019848629E+01   1.0441715228818083E+01   3.3427836945557066E+00
         3         38   5.5480760146374564E+01   4.9641048475931069E+02   3.3601273038123668E+02   7.2480502875785163E+01
         3         39   8.8012372990253969E+00   4.0898134359520145E+02   2.4755968222530822E+02   6.6788647531815471E+01
         3         40   3.9106035004569641E+01   1.1615201772707692E+03   7.2997117962679363E+02   1.9196571147067360E+02
         3         41   5.7217502488720395E-01   1.9379082386925873E+01   9.5316267286806404E+00   2.7055659582487501E+00
         3         42   2.7013299442711272E+01   5.0575873092033009E+02   3.2462242032030520E+02   8.3411841701442142E+01
         3         43   1.0381261952704255E-05   2.2195325071159679E+00   2.9976475353649534E-01   9.2162661463047982E-02
         3         44   6.8253296551983684E+00   4.0823499327981487E+01   2.3786363460877251E+01   4.8433328799226745E+00
         3         45   6.0299023387677353E-01   1.5038601964700975E+01   7.6292026473007448E+00   1.9552562188100768E+00
         3         46   3.2419781484668517E+00   4.4495495627728289E+01   2.2973490367081531E+01   5.6894236620686707E+00
         3         47   1.8458293415363487E-02   4.1942252053489010E-01   1.6493623010883685E-01   3.9081938691299528E-02
         3         48   1.5028489489970915E+00   1.9041302366483063E+01   9.9528427035568843E+00   2.3636659566169089E+00
         3         49   2.0865335202479887E-08   6.8950979302509041E-02   1.0119781171104199E-03   1.0632600670697980E-03
         3         50   8.8512224414583993E-02   2.5060644996612140E+00   5.3305145160909373E-01   2.2981988885511292E-01
         3         51   3.1647260863477342E-03   9.3793171799724184E-02   2.2600444142324191E-02   5.7894197502286922E-03
         3         52   9.6547047301018332E-03   4.4485980385756951E-01   7.3124340505647145E-02   2.2735300680268071E-02
         3         53   5.2799947646756795E-05   3.3665484438870955E-03   3.7665931285230179E-04   9.1026603343196725E-05
         3         54   4.1071311301305599E-03   3.0777596380457978E-01   3.3675120940372720E-02   1.4112995101474284E-02
         3         55   5.5316376110567919E-12   1.7234933550156454E-04   2.4610293962087820E-07   8.1484823143693078E-07
         3         56   8.8179681264420891E-05   9.9505606475726302E-02   4.0961545683157507E-03   6.7400167382112236E-03
         3         57   1.0604721740519788E-07   7.5629175944551090E-04   2.1543985293569335E-06   5.2061312891041269E-06
         3         58   3.4621426228604793E-07   7.0753082694988128E-03   1.6168048801167637E-05   4.5211791359799784E-05
         3         59   2.0713193165197551E-09   7.0358746433627303E-06   2.5564140016033306E-08   7.3096840685844891E-08
         3         60   1.4252803877878798E-07   5.2198704086546064E-03   1.1944198963501834E-05   3.4953903130241811E-05
         3         61   2.1801624245101968E-16   3.0631314460182484E-08   4.3215438441665918E-12   7.8354919788549154E-11
         3         62   1.6295472297203218E-09   1.5525417259480904E-03   7.0112789777239340E-06   1.8666110854540856E-05
